! Touchstone file exported from Ansys Full-Wave Spice
! Project: 0000
!  Design: unknown
! Creation time: Tue Jul 21 02:52:19 2026
! Notes: Touchstone(R) file created by SIwave 2026 R1
!      : Touchstone(R) file created on Tue Jul 21 02:52:19 2026

!      : --------------------------------------
!      : Design: Cell_4ZWV3U
!      : Path:   
!      : --------------------------------------
!      : 
!      : --------------------------------------
!      : *** SIwave SYZ Simulation Settings ***
!      : --------------------------------------
!      : SI/PI Main
!      : --------------------------------------
!      :  SI Simulation -  Balanced
!      : 
!      : --------------------------------------
!      : SI/PI Advanced
!      : --------------------------------------
!      :  Coupling
!      :   Coplane: On
!      :   Intra-plane: Off
!      :   Split-plane: On
!      :   Cavity field: On
!      :   Trace: On
!      :   Cross-talk threshold: -34dB
!      :   Max. coupled lines: 12
!      : 
!      :  Geometry Processing
!      :   Void area threshold: 2mm^2
!      :   Pad area threshold: 1mm^2
!      :   Planes area threshold: 6.25E-06mm^2
!      :   Vertex snap distance threshold: 0.0025mm
!      : 
!      :  Mesh Refinement
!      :   Auto
!      : 
!      :  AC/DC Merge
!      :   Default
!      : 
!      :  Trace return current distribution: Off
!      :  Include voltage/current source parasitics: No
!      :  Add infinite ground plane: No
!      :  Exclude non-functional pads: Yes
!      : 
!      : --------------------------------------
!      : Temperature
!      : --------------------------------------
!      :  Uniform distribution: 20cel
!      : 
!      : --------------------------------------
!      : Net Processing
!      : --------------------------------------
!      :  Auto select nets
!      : 
!      : --------------------------------------
!      : S-parameter Modeling
!      : --------------------------------------
!      :  State Space Model
!      : 
!      : --------------------------------------
!      : Sweep
!      : --------------------------------------
!      :  Name: frequency_sweep
!      :  AC/DC Merge: Off
!      :  Interpolating Sweep
!      :   Relative error for S: 0.005
!      :  Frequency Point Distribution:
!      :   Linear: 1E+06Hz -> 1.2E+10Hz 601 pts
!      :  Enforce Causality: No
!      :  Enforce Passivity: Yes
!      :  Q3D Regions: Off
!      :  HFSS Regions: Off
!      : 
# HZ S RI R 50
! Modal data exported
! Port[1] = P1
! Port[2] = P2

1.0000000000000000e+06 -8.9115397193201242e-06 -1.1501180019085331e-03 9.9996410868989483e-01 -1.2761151796076594e-03 9.9996410868989483e-01 -1.2761151796076594e-03 -9.0092352199749959e-06 -1.1500909418326252e-03 

2.0998333333333332e+07 -8.8180168994789069e-04 -2.3301836142248955e-02 9.9883180263246607e-01 -2.5817344260528258e-02 9.9883180263246607e-01 -2.5817344260528258e-02 -1.0735023701301436e-03 -2.3283306093158707e-02 

4.0996666666666664e+07 -3.0119052497369079e-03 -4.5046929084384686e-02 9.9678870094687666e-01 -4.9860093926953564e-02 9.9678870094687666e-01 -4.9860093926953564e-02 -3.2273313760919665e-03 -4.4897941622116397e-02 

6.0995000000000000e+07 -6.0730348648646995e-03 -6.6333598450895037e-02 9.9369271467228149e-01 -7.3666511659836231e-02 9.9369271467228149e-01 -7.3666511659836231e-02 -6.3762272946462726e-03 -6.6215205727262819e-02 

8.0993333333333328e+07 -1.0015654087983831e-02 -8.7317443036262446e-02 9.8956218943549823e-01 -9.7117213847012968e-02 9.8956218943549823e-01 -9.7117213847012968e-02 -1.0560337756755217e-02 -8.7220451647204558e-02 

1.0099166666666666e+08 -1.4877910101265598e-02 -1.0797818128068185e-01 9.8447088085633572e-01 -1.2017123457279780e-01 9.8447088085633572e-01 -1.2017123457279780e-01 -1.5753110700048426e-02 -1.0784233362727329e-01 

1.2099000000000000e+08 -2.0646655913878376e-02 -1.2824954486020906e-01 9.7846207062520063e-01 -1.4280360901579575e-01 9.7846207062520063e-01 -1.4280360901579575e-01 -2.1905143224173258e-02 -1.2802589313234886e-01 

1.4098833333333331e+08 -2.7281245250819534e-02 -1.4807436194108378e-01 9.7156770175467955e-01 -1.6497925188546289e-01 9.7156770175467955e-01 -1.6497925188546289e-01 -2.8968765711348064e-02 -1.4772911835996810e-01 

1.6098666666666666e+08 -3.4735050486131465e-02 -1.6740881548294084e-01 9.6382257411882288e-01 -1.8665619259222227e-01 9.6382257411882288e-01 -1.8665619259222227e-01 -3.6900934665281188e-02 -1.6691363047849433e-01 

1.8098500000000000e+08 -4.2962493514854407e-02 -1.8621683801192049e-01 9.5526748377203441e-01 -2.0779229503026508e-01 9.5526748377203441e-01 -2.0779229503026508e-01 -4.5659764074171647e-02 -1.8554105423776826e-01 

2.0098333333333331e+08 -5.1919316011543953e-02 -2.0446608098616109e-01 9.4594789155055503e-01 -2.2834906004897215e-01 9.4594789155055503e-01 -2.2834906004897215e-01 -5.5201472858154965e-02 -2.0357340530582399e-01 

2.2098166666666666e+08 -6.1561217578859212e-02 -2.2212651703064845e-01 9.3591195348389744e-01 -2.4829285353372471e-01 9.3591195348389744e-01 -2.4829285353372471e-01 -6.5479155865305366e-02 -2.2097480032531788e-01 

2.4098000000000000e+08 -7.1842819186990314e-02 -2.3917055947073779e-01 9.2520912094248653e-01 -2.6759488335392939e-01 9.2520912094248653e-01 -2.6759488335392939e-01 -7.6442936832819636e-02 -2.3771303071965960e-01 

2.6097833333333331e+08 -8.2717334253506108e-02 -2.5557368930127200e-01 9.1388937518961222e-01 -2.8623081382709981e-01 9.1388937518961222e-01 -2.8623081382709981e-01 -8.8040796265302354e-02 -2.5376052975219288e-01 

2.8097666666666663e+08 -9.4136779458282652e-02 -2.7131504543170620e-01 9.0200285241373035e-01 -3.0418041270071694e-01 9.0200285241373035e-01 -3.0418041270071694e-01 -1.0021956593217618e-01 -2.6909474625754359e-01 

3.0097500000000000e+08 -1.0605246548411069e-01 -2.8637778168630501e-01 8.8959962879700694e-01 -3.2142733051505956e-01 8.8959962879700694e-01 -3.2142733051505956e-01 -1.1292582296096816e-01 -2.8369810028015152e-01 

3.2097333333333331e+08 -1.1841556949703322e-01 -3.0074917698560627e-01 8.7672952753748568e-01 -3.3795898423228421e-01 8.7672952753748568e-01 -3.3795898423228421e-01 -1.2610658785632933e-01 -2.9755770442284629e-01 

3.4097166666666663e+08 -1.3117767581342074e-01 -3.1442055539866032e-01 8.6344189171013563e-01 -3.5376648444022218e-01 8.6344189171013563e-01 -3.5376648444022218e-01 -1.3970982596938714e-01 -3.1066498831707656e-01 

3.6097000000000000e+08 -1.4429123584216605e-01 -3.2738708405508721e-01 8.4978531749753905e-01 -3.6884455483417794e-01 8.4978531749753905e-01 -3.6884455483417794e-01 -1.5368479230082510e-01 -3.2301530960387548e-01 

3.8096833333333331e+08 -1.5770993693717458e-01 -3.3964750443498903e-01 8.3580736558980750e-01 -3.8319141392483502e-01 8.3580736558980750e-01 -3.8319141392483502e-01 -1.6798226770075581e-01 -3.3460759167271903e-01 

4.0096666666666663e+08 -1.7138898824816595e-01 -3.5120383478529771e-01 8.2155427422172089e-01 -3.9680860833866421e-01 8.2155427422172089e-01 -3.9680860833866421e-01 -1.8255472730372319e-01 -3.4544400024634953e-01 

4.2096500000000000e+08 -1.8528533780011658e-01 -3.6206106612780159e-01 8.0707069403843223e-01 -4.0970080030863570e-01 8.0707069403843223e-01 -4.0970080030863570e-01 -1.9735646987375599e-01 -3.5552965571559497e-01 

4.4096333333333331e+08 -1.9935783489591757e-01 -3.7222686363162105e-01 7.9239945848691673e-01 -4.2187551901871700e-01 7.9239945848691673e-01 -4.2187551901871700e-01 -2.1234372502703369e-01 -3.6487237204616929e-01 

4.6096166666666663e+08 -2.1356734935061575e-01 -3.8171127864709703e-01 7.7758139689943062e-01 -4.3334288795238496e-01 7.7758139689943062e-01 -4.3334288795238496e-01 -2.2747474636009596e-01 -3.7348241245481184e-01 

4.8096000000000000e+08 -2.2787685607371258e-01 -3.9052647329564338e-01 7.6265519221178413e-01 -4.4411534006238196e-01 7.6265519221178413e-01 -4.4411534006238196e-01 -2.4270989268018095e-01 -3.8137225408156711e-01 

5.0095833333333331e+08 -2.4225149098075205e-01 -3.9868645802559777e-01 7.4765728167034740e-01 -4.5420733082845349e-01 7.4765728167034740e-01 -4.5420733082845349e-01 -2.5801169639254151e-01 -3.8855635677835842e-01 

5.2095666666666663e+08 -2.5665858241408501e-01 -4.0620684211049285e-01 7.3262179675234140e-01 -4.6363505703788688e-01 7.3262179675234140e-01 -4.6363505703788688e-01 -2.7334491688914386e-01 -3.9505093387413986e-01 

5.4095500000000000e+08 -2.7106766111420899e-01 -4.1310459710072317e-01 7.1758053750292827e-01 -4.7241618694911003e-01 7.1758053750292827e-01 -4.7241618694911003e-01 -2.8867657681284253e-01 -4.0087372491273965e-01 

5.6095333333333325e+08 -2.8545045113114992e-01 -4.1939783341477593e-01 7.0256297620886721e-01 -4.8056960562601747e-01 7.0256297620886721e-01 -4.8056960562601747e-01 -3.0397597972495000e-01 -4.0604377177321110e-01 

5.8095166666666663e+08 -2.9978084377337100e-01 -4.2510559040733897e-01 6.8759628550615814e-01 -4.8811517775063817e-01 6.8759628550615814e-01 -4.8811517775063817e-01 -3.1921470861832968e-01 -4.1058120034120865e-01 

6.0095000000000000e+08 -3.1403485654367785e-01 -4.3024764031351304e-01 6.7270538642616307e-01 -4.9507352910690716e-01 6.7270538642616307e-01 -4.9507352910690716e-01 -3.3436660563313853e-01 -4.1450701014531188e-01 

6.2094833333333325e+08 -3.2819057898839221e-01 -4.3484430644000793e-01 6.5791301239564093e-01 -5.0146584713152165e-01 6.5791301239564093e-01 -5.0146584713152165e-01 -3.4940773409931880e-01 -4.1784287425458305e-01 

6.4094666666666663e+08 -3.4222810737856463e-01 -4.3891629586876002e-01 6.4323978572663276e-01 -5.0731370037324752e-01 6.4323978572663276e-01 -5.0731370037324752e-01 -3.6431632458762125e-01 -4.2061095139869814e-01 

6.6094500000000000e+08 -3.5612947007938345e-01 -4.4248454678732124e-01 6.2870430362321139e-01 -5.1263887633175098e-01 6.2870430362321139e-01 -5.1263887633175098e-01 -3.7907270705818902e-01 -4.2283371181968415e-01 

6.8094333333333325e+08 -3.6987854543984788e-01 -4.4557009038655970e-01 6.1432323117321419e-01 -5.1746323690660079e-01 6.1432323117321419e-01 -5.1746323690660079e-01 -3.9365923135426506e-01 -4.2453377788295232e-01 

7.0094166666666663e+08 -3.8346097394802142e-01 -4.4819392708505745e-01 6.0011139918179235e-01 -5.2180859054445761e-01 6.0011139918179235e-01 -5.2180859054445761e-01 -4.0806017835964831e-01 -4.2573378000632650e-01 

7.2094000000000000e+08 -3.9686406624276149e-01 -4.5037691668373142e-01 5.8608190502888025e-01 -5.2569658007429765e-01 5.8608190502888025e-01 -5.2569658007429765e-01 -4.2226166405336479e-01 -4.2645622805619088e-01 

7.4093833333333325e+08 -4.1007670847287825e-01 -4.5213968190503384e-01 5.7224621502735684e-01 -5.2914858518921337e-01 5.7224621502735684e-01 -5.2914858518921337e-01 -4.3625153857372762e-01 -4.2672339800046494e-01 

7.6093666666666663e+08 -4.2308926633653376e-01 -4.5350252465526353e-01 5.5861426700059025e-01 -5.3218563851120415e-01 5.5861426700059025e-01 -5.3218563851120415e-01 -4.5001928218261933e-01 -4.2655723333451528e-01 

7.8093500000000000e+08 -4.3589348895443658e-01 -4.5448535426361392e-01 5.4519457201230104e-01 -5.3482835418240837e-01 5.4519457201230104e-01 -5.3482835418240837e-01 -4.6355589983038736e-01 -4.2597926057316721e-01 

8.0093333333333325e+08 -4.4848241359088481e-01 -4.5510762688710948e-01 5.3199431436625910e-01 -5.3709686794154676e-01 5.3199431436625910e-01 -5.3709686794154676e-01 -4.7685381575764124e-01 -4.2501051795883193e-01 

8.2093166666666663e+08 -4.6085027206679802e-01 -4.5538829523597524e-01 5.1901944915656451e-01 -5.3901078767736110e-01 5.1901944915656451e-01 -5.3901078767736110e-01 -4.8990676937453748e-01 -4.2367149642449436e-01 

8.4093000000000000e+08 -4.7299239960200490e-01 -4.5534576774382718e-01 5.0627479679214671e-01 -5.4058915349424197e-01 5.0627479679214671e-01 -5.4058915349424197e-01 -5.0270971343145954e-01 -4.2198209179355528e-01 

8.6092833333333325e+08 -4.8490514659850303e-01 -4.5499787634455258e-01 4.9376413403586228e-01 -5.4185040633789461e-01 4.9376413403586228e-01 -5.4185040633789461e-01 -5.1525871525765132e-01 -4.1996156720256816e-01 

8.8092666666666663e+08 -4.9658579387949486e-01 -4.5436185198316331e-01 4.8149028121977416e-01 -5.4281236432369251e-01 4.8149028121977416e-01 -5.4281236432369251e-01 -5.2755086174440280e-01 -4.1762852469471090e-01 

9.0092500000000000e+08 -5.0803247166219156e-01 -4.5345430706920675e-01 4.6945518538072367e-01 -5.4349220591111824e-01 4.6945518538072367e-01 -5.4349220591111824e-01 -5.3958416850644753e-01 -4.1500088500733712e-01 

9.2092333333333325e+08 -5.1924408254737831e-01 -4.5229122407444988e-01 4.5765999915128613e-01 -5.4390645915569880e-01 4.5765999915128613e-01 -5.4390645915569880e-01 -5.5135749356956154e-01 -4.1209587459044517e-01 

9.4092166666666663e+08 -5.3022022863462404e-01 -4.5088794956064410e-01 4.4610515530715156e-01 -5.4407099629775535e-01 4.4610515530715156e-01 -5.4407099629775535e-01 -5.6287045579562467e-01 -4.0893001896084819e-01 

9.6092000000000000e+08 -5.4096114288487718e-01 -4.4925919293132993e-01 4.3479043693610031e-01 -5.4400103301937675e-01 4.3479043693610031e-01 -5.4400103301937675e-01 -5.7412335815209159e-01 -4.0551914155759750e-01 

9.8091833333333325e+08 -5.5146762471502653e-01 -4.4741902928762312e-01 4.2371504324264536e-01 -5.4371113174087415e-01 4.2371504324264536e-01 -5.4371113174087415e-01 -5.8511711586825310e-01 -4.0187836732149568e-01 

1.0009166666666666e+09 -5.6174097981470617e-01 -4.4538090579197159e-01 4.1287765104685636e-01 -5.4321520838589832e-01 4.1287765104685636e-01 -5.4321520838589832e-01 -5.9585318942316678e-01 -3.9802213030532407e-01 

1.0209149999999999e+09 -5.7178296409036233e-01 -4.4315765101585508e-01 4.0227647206964745e-01 -5.4252654209734530e-01 4.0227647206964745e-01 -5.4252654209734530e-01 -6.0633352230670190e-01 -3.9396418465322780e-01 

1.0409133333333333e+09 -5.8159573164308842e-01 -4.4076148678136928e-01 3.9190930612711838e-01 -5.4165778742269044e-01 3.9190930612711838e-01 -5.4165778742269044e-01 -6.1656048337022851e-01 -3.8971761841097319e-01 

1.0609116666666666e+09 -5.9118178663736198e-01 -4.3820404206274755e-01 3.8177359037592407e-01 -5.4062098855587604e-01 3.8177359037592407e-01 -5.4062098855587604e-01 -6.2653681366245451e-01 -3.8529486960675507e-01 

1.0809100000000000e+09 -6.0054393890895508e-01 -4.3549636855827339e-01 3.7186644477180519e-01 -5.3942759524057693e-01 3.7186644477180519e-01 -5.3942759524057693e-01 -6.3626557750517088e-01 -3.8070774418954223e-01 

1.1009083333333333e+09 -6.0968526313462268e-01 -4.3264895758989430e-01 3.6218471391334500e-01 -5.3808848000049836e-01 3.6218471391334500e-01 -5.3808848000049836e-01 -6.4575011763692014e-01 -3.7596743539637628e-01 

1.1209066666666665e+09 -6.1860906139880156e-01 -4.2967175801381574e-01 3.5272500545092411e-01 -5.3661395639821852e-01 3.5272500545092411e-01 -5.3661395639821852e-01 -6.5499401421048498e-01 -3.7108454419030568e-01 

1.1409050000000000e+09 -6.2731882896127678e-01 -4.2657419488133852e-01 3.4348372524904663e-01 -5.3501379804516036e-01 3.4348372524904663e-01 -5.3501379804516036e-01 -6.6400104738864885e-01 -3.6606910049320607e-01 

1.1609033333333333e+09 -6.3581822302886648e-01 -4.2336518862129863e-01 3.3445710948805102e-01 -5.3329725813654927e-01 3.3445710948805102e-01 -5.3329725813654927e-01 -6.7277516335425247e-01 -3.6093058491140262e-01 

1.1809016666666665e+09 -6.4411103438648298e-01 -4.2005317450711060e-01 3.2564125389122900e-01 -5.3147308931264226e-01 3.2564125389122900e-01 -5.3147308931264226e-01 -6.8132044349327225e-01 -3.5567795074009406e-01 

1.2009000000000000e+09 -6.5220116163921493e-01 -4.1664612228256132e-01 3.1703214026520310e-01 -5.2954956365586880e-01 3.1703214026520310e-01 -5.2954956365586880e-01 -6.8964107653375539e-01 -3.5031964605433502e-01 

1.2208983333333333e+09 -6.6009258793684833e-01 -4.1315155575531348e-01 3.0862566053107465e-01 -5.2753449268597497e-01 3.0862566053107465e-01 -5.2753449268597497e-01 -6.9774133343530031e-01 -3.4486363571223244e-01 

1.2408966666666665e+09 -6.6778935998636535e-01 -4.0957657224586519e-01 3.0041763842329705e-01 -5.2543524721759238e-01 3.0041763842329705e-01 -5.2543524721759238e-01 -7.0562554481515416e-01 -3.3931742314399049e-01 

1.2608950000000000e+09 -6.7529556918726819e-01 -4.0592786178152129e-01 2.9240384902290689e-01 -5.2325877697684942e-01 2.9240384902290689e-01 -5.2325877697684942e-01 -7.1329808073435075e-01 -3.3368807179042903e-01 

1.2808933333333333e+09 -6.8261533472142277e-01 -4.0221172595401222e-01 2.8458003628892548e-01 -5.2101162988098437e-01 2.8458003628892548e-01 -5.2101162988098437e-01 -7.2076333264193893e-01 -3.2798222611507982e-01 

1.3008916666666665e+09 -6.8975278844460708e-01 -3.9843409636849525e-01 2.7694192874161366e-01 -5.1869997090802289e-01 2.7694192874161366e-01 -5.1869997090802289e-01 -7.2802569730747713e-01 -3.2220613210748300e-01 

1.3208900000000000e+09 -6.9671206145878573e-01 -3.9460055260184068e-01 2.6948525344210328e-01 -5.1632960050046406e-01 2.6948525344210328e-01 -5.1632960050046406e-01 -7.3508956257235136e-01 -3.1636565722179177e-01 

1.3408883333333333e+09 -7.0349727218786684e-01 -3.9071633966288433e-01 2.6220574840883792e-01 -5.1390597244840719e-01 2.6220574840883792e-01 -5.1390597244840719e-01 -7.4195929477312006e-01 -3.1046630969519362e-01 

1.3608866666666665e+09 -7.1011251586465274e-01 -3.8678638488424028e-01 2.5509917359699519e-01 -5.1143421122359989e-01 2.5509917359699519e-01 -5.1143421122359989e-01 -7.4863922769415225e-01 -3.0451325720482447e-01 

1.3808850000000000e+09 -7.1656185528486627e-01 -3.8281531424441689e-01 2.4816132056926540e-01 -5.0891912872515155e-01 2.4816132056926540e-01 -5.0891912872515155e-01 -7.5513365288529843e-01 -2.9851134488185022e-01 

1.4008833333333333e+09 -7.2284931273745234e-01 -3.7880746807827148e-01 2.4138802096316889e-01 -5.0636524043283404e-01 2.4138802096316889e-01 -5.0636524043283404e-01 -7.6144681126356906e-01 -2.9246511260287222e-01 

1.4208816666666665e+09 -7.2897886296293124e-01 -3.7476691621461844e-01 2.3477515387112005e-01 -5.0377678093856382e-01 2.3477515387112005e-01 -5.0377678093856382e-01 -7.6758288584677947e-01 -2.8637881160256484e-01 

1.4408800000000000e+09 -7.3495442712018433e-01 -3.7069747244969675e-01 2.2831865222174158e-01 -5.0115771886909244e-01 2.2831865222174158e-01 -5.0115771886909244e-01 -7.7354599552352188e-01 -2.8025642038590698e-01 

1.4608783333333333e+09 -7.4077986758318526e-01 -3.6660270845538279e-01 2.2201450826299440e-01 -4.9851177118199719e-01 2.2201450826299440e-01 -4.9851177118199719e-01 -7.7934018976523234e-01 -2.7410165993865343e-01 

1.4808766666666665e+09 -7.4645898355050799e-01 -3.6248596705332847e-01 2.1585877822769228e-01 -4.9584241684822905e-01 2.1585877822769228e-01 -4.9584241684822905e-01 -7.8496944417131931e-01 -2.6791800827016915e-01 

1.5008750000000000e+09 -7.5199550734859244e-01 -3.5835037491136645e-01 2.0984758625909564e-01 -4.9315290992683802e-01 2.0984758625909564e-01 -4.9315290992683802e-01 -7.9043765679376210e-01 -2.6170871425000769e-01 

1.5208733333333333e+09 -7.5739310140109239e-01 -3.5419885462202849e-01 2.0397712766987167e-01 -4.9044629204271706e-01 2.0397712766987167e-01 -4.9044629204271706e-01 -7.9574864512886645e-01 -2.5547681081044060e-01 

1.5408716666666665e+09 -7.6265535575759746e-01 -3.5003413622677848e-01 1.9824367160290407e-01 -4.8772540427599598e-01 1.9824367160290407e-01 -4.8772540427599598e-01 -8.0090614372420055e-01 -2.4922512750324100e-01 

1.5608700000000000e+09 -7.6778578613347048e-01 -3.4585876818933248e-01 1.9264356315329231e-01 -4.8499289848051541e-01 1.9264356315329231e-01 -4.8499289848051541e-01 -8.0591380233773391e-01 -2.4295630242434715e-01 

1.5808683333333333e+09 -7.7278783243350835e-01 -3.4167512779831122e-01 1.8717322500462241e-01 -4.8225124805160480e-01 1.8717322500462241e-01 -4.8225124805160480e-01 -8.1077518458455056e-01 -2.3667279353496046e-01 

1.6008666666666665e+09 -7.7766485767345794e-01 -3.3748543106424422e-01 1.8182915863666832e-01 -4.7950275815280197e-01 1.8182915863666832e-01 -4.7950275815280197e-01 -8.1549376701413856e-01 -2.3037688940943027e-01 

1.6208650000000000e+09 -7.8242014726937648e-01 -3.3329174210989315e-01 1.7660794514677855e-01 -4.7674957542530760e-01 1.7660794514677855e-01 -4.7674957542530760e-01 -8.2007293858004604e-01 -2.2407071940844087e-01 

1.6408633333333333e+09 -7.8705690866377420e-01 -3.2909598205802937e-01 1.7150624573044607e-01 -4.7399369719688511e-01 1.7150624573044607e-01 -4.7399369719688511e-01 -8.2451600043910034e-01 -2.1775626333900927e-01 

1.6608616666666665e+09 -7.9157827122970925e-01 -3.2489993746499279e-01 1.6652080185539722e-01 -4.7123698021241256e-01 1.6652080185539722e-01 -4.7123698021241256e-01 -8.2882616607093595e-01 -2.1143536055474699e-01 

1.6808600000000000e+09 -7.9598728643300998e-01 -3.2070526830060342e-01 1.6164843517223798e-01 -4.6848114889962822e-01 1.6164843517223798e-01 -4.6848114889962822e-01 -8.3300656164256148e-01 -2.0510971860504107e-01 

1.7008583333333333e+09 -8.0028692822577063e-01 -3.1651351548565765e-01 1.5688604718776877e-01 -4.6572780319514023e-01 1.5688604718776877e-01 -4.6572780319514023e-01 -8.3706022660681745e-01 -1.9878092140859502e-01 

1.7208566666666665e+09 -8.0448009361639616e-01 -3.1232610804707645e-01 1.5223061872969471e-01 -4.6297842594860594e-01 1.5223061872969471e-01 -4.6297842594860594e-01 -8.4099011452050965e-01 -1.9245043692992406e-01 

1.7408550000000000e+09 -8.0856960343616868e-01 -3.0814436984010357e-01 1.4767920923504912e-01 -4.6023438992193505e-01 1.4767920923504912e-01 -4.6023438992193505e-01 -8.4479909400807440e-01 -1.8611962449945801e-01 

1.7608533333333333e+09 -8.1255820322310879e-01 -3.0396952594337567e-01 1.4322895588010384e-01 -4.5749696440417020e-01 1.4322895588010384e-01 -4.5749696440417020e-01 -8.4848994990114202e-01 -1.7978974165932701e-01 

1.7808516666666665e+09 -8.1644856425993584e-01 -2.9980270865396713e-01 1.3887707257738657e-01 -4.5476732146017196e-01 1.3887707257738657e-01 -4.5476732146017196e-01 -8.5206538448483116e-01 -1.7346195067856288e-01 

1.8008500000000000e+09 -8.2024328469957519e-01 -2.9564496317642364e-01 1.3462084885401940e-01 -4.5204654183199178e-01 1.3462084885401940e-01 -4.5204654183199178e-01 -8.5552801887470165e-01 -1.6713732463654199e-01 

1.8208483333333333e+09 -8.2394489078997923e-01 -2.9149725297768792e-01 1.3045764863945530e-01 -4.4933562050481685e-01 1.3045764863945530e-01 -4.4933562050481685e-01 -8.5888039445939035e-01 -1.6081685323210287e-01 

1.8408466666666665e+09 -8.2755583818359935e-01 -2.8736046482012922e-01 1.2638490896272656e-01 -4.4663547196420655e-01 1.2638490896272656e-01 -4.4663547196420655e-01 -8.6212497443865699e-01 -1.5450144819967404e-01 

1.8608450000000000e+09 -8.3107851328260263e-01 -2.8323541355359949e-01 1.2240013859000730e-01 -4.4394693514841077e-01 1.2240013859000730e-01 -4.4394693514841077e-01 -8.6526414541415420e-01 -1.4819194843754538e-01 

1.8808433333333333e+09 -8.3451523466703437e-01 -2.7912284657484054e-01 1.1850091660262063e-01 -4.4127077812216570e-01 1.1850091660262063e-01 -4.4127077812216570e-01 -8.6830021902404442e-01 -1.4188912485536259e-01 

1.9008416666666665e+09 -8.3786825453834590e-01 -2.7502344807099505e-01 1.1468489093135620e-01 -4.3860770248088865e-01 1.1468489093135620e-01 -4.3860770248088865e-01 -8.7123543362689171e-01 -1.3559368489909676e-01 

1.9208400000000000e+09 -8.4113976020210968e-01 -2.7093784300152973e-01 1.1094977686055721e-01 -4.3595834749968176e-01 1.1094977686055721e-01 -4.3595834749968176e-01 -8.7407195599996756e-01 -1.2930627685762991e-01 

1.9408383333333333e+09 -8.4433187558268186e-01 -2.6686660082618030e-01 1.0729335550114359e-01 -4.3332329404592690e-01 1.0729335550114359e-01 -4.3332329404592690e-01 -8.7681188306578517e-01 -1.2302749388150508e-01 

1.9608366666666665e+09 -8.4744666271718883e-01 -2.6281023908302625e-01 1.0371347225666835e-01 -4.3070306825797056e-01 1.0371347225666835e-01 -4.3070306825797056e-01 -8.7945724362433619e-01 -1.1675787778700086e-01 

1.9808349999999998e+09 -8.5048612331116424e-01 -2.5876922664927066e-01 1.0020803526845770e-01 -4.2809814501753629e-01 1.0020803526845770e-01 -4.2809814501753629e-01 -8.8201000008812847e-01 -1.1049792264050871e-01 

2.0008333333333333e+09 -8.5345220023738533e-01 -2.5474398692469291e-01 9.6775013866896575e-02 -4.2550895121145876e-01 9.6775013866896575e-02 -4.2550895121145876e-01 -8.8447205022192554e-01 -1.0424807810543180e-01 

2.0208316666666665e+09 -8.5634677907957035e-01 -2.5073490072950672e-01 9.3412437015858912e-02 -4.2293586880847539e-01 9.3412437015858912e-02 -4.2293586880847539e-01 -8.8684522887047723e-01 -9.8008752606375857e-02 

2.0408299999999998e+09 -8.5917168962352952e-01 -2.4674230912263101e-01 9.0118391777079726e-02 -4.2037923774720665e-01 9.0118391777079726e-02 -4.2037923774720665e-01 -8.8913130967026910e-01 -9.1780316336122394e-02 

2.0608283333333333e+09 -8.6192870738788607e-01 -2.4276651594151938e-01 8.6891021766643442e-02 -4.1783935866404981e-01 8.6891021766643442e-02 -4.1783935866404981e-01 -8.9133200675665891e-01 -8.5563104021006434e-02 

2.0808266666666665e+09 -8.6461955508661659e-01 -2.3880779030337174e-01 8.3728525643532697e-02 -4.1531649544998722e-01 8.3728525643532697e-02 -4.1531649544998722e-01 -8.9344897644342336e-01 -7.9357417569307961e-02 

2.1008249999999998e+09 -8.6724590410740010e-01 -2.3486636888387832e-01 8.0629155606837935e-02 -4.1281087766121688e-01 8.0629155606837935e-02 -4.1281087766121688e-01 -8.9548381888211648e-01 -7.3163528552531235e-02 

2.1208233333333333e+09 -8.6980937596102903e-01 -2.3094245807456112e-01 7.7591215914921158e-02 -4.1032270278549976e-01 7.7591215914921158e-02 -4.1032270278549976e-01 -8.9743807969763156e-01 -6.6981680537209612e-02 

2.1408216666666665e+09 -8.7231154369619612e-01 -2.2703623603832773e-01 7.4613061429496932e-02 -4.0785213837215034e-01 7.4613061429496932e-02 -4.0785213837215034e-01 -8.9931325159836306e-01 -6.0812091271316066e-02 

2.1608200000000000e+09 -8.7475393330693885e-01 -2.2314785460013928e-01 7.1693096179829691e-02 -4.0539932403737577e-01 7.1693096179829691e-02 -4.0539932403737577e-01 -9.0111077595785294e-01 -5.4654954738253075e-02 

2.1808183333333330e+09 -8.7713802509832717e-01 -2.1927744106015981e-01 6.8829771958149599e-02 -4.0296437334729385e-01 6.8829771958149599e-02 -4.0296437334729385e-01 -9.0283204436590214e-01 -4.8510443098302145e-02 

2.2008166666666665e+09 -8.7946525504280770e-01 -2.1542509985137476e-01 6.6021586936588300e-02 -4.0054737559098025e-01 6.6021586936588300e-02 -4.0054737559098025e-01 -9.0447840015011116e-01 -4.2378708501957796e-02 

2.2208150000000000e+09 -8.8173701607827937e-01 -2.1159091417288900e-01 6.3267084323742298e-02 -3.9814839744240260e-01 6.3267084323742298e-02 -3.9814839744240260e-01 -9.0605113986396191e-01 -3.6259884824580500e-02 

2.2408133333333330e+09 -8.8395465941339313e-01 -2.0777494743059327e-01 6.0564851034234160e-02 -3.9576748452887467e-01 6.0564851034234160e-02 -3.9576748452887467e-01 -9.0755151474757201e-01 -3.0154089233050900e-02 

2.2608116666666665e+09 -8.8611949577363081e-01 -2.0397724466524866e-01 5.7913516405102866e-02 -3.9340466289919551e-01 5.7913516405102866e-02 -3.9340466289919551e-01 -9.0898073214975694e-01 -2.4061423742431060e-02 

2.2808100000000000e+09 -8.8823279663612398e-01 -2.0019783384356879e-01 5.5311750927034206e-02 -3.9105994040791364e-01 5.5311750927034206e-02 -3.9105994040791364e-01 -9.1033995692376302e-01 -1.7981976578727292e-02 

2.3008083333333330e+09 -8.9029579541361714e-01 -1.9643672712746227e-01 5.2758265023188311e-02 -3.8873330801113948e-01 5.2758265023188311e-02 -3.8873330801113948e-01 -9.1163031278403872e-01 -1.1915823564078651e-02 

2.3208066666666665e+09 -8.9230968863874038e-01 -1.9269392197773680e-01 5.0251807842943953e-02 -3.8642474098927604e-01 5.0251807842943953e-02 -3.8642474098927604e-01 -9.1285288363409611e-01 -5.8630293514481359e-03 

2.3408050000000000e+09 -8.9427563708300817e-01 -1.8896940228875345e-01 4.7791166095902969e-02 -3.8413420009129234e-01 4.7791166095902969e-02 -3.8413420009129234e-01 -9.1400871486118840e-01 1.7635142537703952e-04 

2.3608033333333330e+09 -8.9619476686789490e-01 -1.8526313939048691e-01 4.5375162917509752e-02 -3.8186163261121420e-01 4.5375162917509752e-02 -3.8186163261121420e-01 -9.1509881459679210e-01 6.2022730005015132e-03 

2.3808016666666665e+09 -8.9806817054583421e-01 -1.8157509298490015e-01 4.3002656754554003e-02 -3.7960697340062133e-01 4.3002656754554003e-02 -3.7960697340062133e-01 -9.1612415494646249e-01 1.2214697498736519e-02 

2.4008000000000000e+09 -8.9989690813704548e-01 -1.7790521206815196e-01 4.0672540298427151e-02 -3.7737014581611439e-01 4.0672540298427151e-02 -3.7737014581611439e-01 -9.1708567318745216e-01 1.8213593891036051e-02 

2.4207983333333330e+09 -9.0168200814436605e-01 -1.7425343577486557e-01 3.8383739432672405e-02 -3.7515106261145437e-01 3.8383739432672405e-02 -3.7515106261145437e-01 -9.1798427293477380e-01 2.4198937147903013e-02 

2.4407966666666665e+09 -9.0342446854550429e-01 -1.7061969414684702e-01 3.6135212217175042e-02 -3.7294962677480359e-01 3.6135212217175042e-02 -3.7294962677480359e-01 -9.1882082527627462e-01 3.0170707356399463e-02 

2.4607950000000000e+09 -9.0512525774832531e-01 -1.6700390887935057e-01 3.3925947903284411e-02 -3.7076573231396615e-01 3.3925947903284411e-02 -3.7076573231396615e-01 -9.1959616987867188e-01 3.6128888899096351e-02 

2.4807933333333330e+09 -9.0678531551646369e-01 -1.6340599402764644e-01 3.1754965972470385e-02 -3.6859926499360468e-01 3.1754965972470385e-02 -3.6859926499360468e-01 -9.2031111606125693e-01 4.2073469743851705e-02 

2.5007916666666665e+09 -9.0840555387613586e-01 -1.5982585663762111e-01 2.9621315209816167e-02 -3.6645010302752717e-01 2.9621315209816167e-02 -3.6645010302752717e-01 -9.2096644384497883e-01 4.8004440680294830e-02 

2.5207900000000000e+09 -9.0998685798228029e-01 -1.5626339738575454e-01 2.7524072797890823e-02 -3.6431811772736983e-01 2.7524072797890823e-02 -3.6431811772736983e-01 -9.2156290496651927e-01 5.3921794726883437e-02 
