! Touchstone file exported from Ansys Full-Wave Spice
! Project: 0000
!  Design: unknown
! Creation time: Tue Jul 21 00:16:52 2026
! Notes: Touchstone(R) file created by SIwave 2026 R1
!      : Touchstone(R) file created on Tue Jul 21 00:16:52 2026

!      : --------------------------------------
!      : Design: Cell_SRDGHW
!      : Path:   
!      : --------------------------------------
!      : 
!      : --------------------------------------
!      : *** SIwave SYZ Simulation Settings ***
!      : --------------------------------------
!      : SI/PI Main
!      : --------------------------------------
!      :  SI Simulation -  Balanced
!      : 
!      : --------------------------------------
!      : SI/PI Advanced
!      : --------------------------------------
!      :  Coupling
!      :   Coplane: On
!      :   Intra-plane: Off
!      :   Split-plane: On
!      :   Cavity field: On
!      :   Trace: On
!      :   Cross-talk threshold: -34dB
!      :   Max. coupled lines: 12
!      : 
!      :  Geometry Processing
!      :   Void area threshold: 2mm^2
!      :   Pad area threshold: 1mm^2
!      :   Planes area threshold: 6.25E-06mm^2
!      :   Vertex snap distance threshold: 0.0025mm
!      : 
!      :  Mesh Refinement
!      :   Auto
!      : 
!      :  AC/DC Merge
!      :   Default
!      : 
!      :  Trace return current distribution: Off
!      :  Include voltage/current source parasitics: No
!      :  Add infinite ground plane: No
!      :  Exclude non-functional pads: Yes
!      : 
!      : --------------------------------------
!      : Temperature
!      : --------------------------------------
!      :  Uniform distribution: 20cel
!      : 
!      : --------------------------------------
!      : Net Processing
!      : --------------------------------------
!      :  Auto select nets
!      : 
!      : --------------------------------------
!      : S-parameter Modeling
!      : --------------------------------------
!      :  State Space Model
!      : 
!      : --------------------------------------
!      : Sweep
!      : --------------------------------------
!      :  Name: frequency_sweep
!      :  AC/DC Merge: Off
!      :  Interpolating Sweep
!      :   Relative error for S: 0.005
!      :  Frequency Point Distribution:
!      :   Linear: 1E+06Hz -> 1E+09Hz 10 pts
!      :  Enforce Causality: No
!      :  Enforce Passivity: Yes
!      :  Q3D Regions: Off
!      :  HFSS Regions: Off
!      : 
# HZ S RI R 50
! Modal data exported
! Port[1] = P1
! Port[2] = P2

1.0000000000000000e+06 -8.9801032594386418e-06 -1.1481656860100270e-03 9.9996417971350826e-01 -1.2780670137103876e-03 9.9996417971350826e-01 -1.2780670137103876e-03 -9.0827490017661105e-06 -1.1481395838451691e-03 

1.1200000000000000e+08 -1.7911954491960373e-02 -1.1895625186384495e-01 9.8127384823183605e-01 -1.3292789845023018e-01 9.8127384823183605e-01 -1.3292789845023018e-01 -1.9049938775910363e-02 -1.1876612115140141e-01 

2.2300000000000000e+08 -6.2444216542589498e-02 -2.2346318453559480e-01 9.3483940809360566e-01 -2.5076645110512974e-01 9.3483940809360566e-01 -2.5076645110512974e-01 -6.6679885626775487e-02 -2.2220058652488808e-01 

3.3400000000000000e+08 -1.2645161442651864e-01 -3.0919183402824779e-01 8.6803809905885954e-01 -3.4910762484500457e-01 8.6803809905885954e-01 -3.4910762484500457e-01 -1.3519511146718166e-01 -3.0540619363944038e-01 

4.4500000000000000e+08 -2.0187846325526332e-01 -3.7359058143312801e-01 7.8923453844765479e-01 -4.2528317339778449e-01 7.8923453844765479e-01 -4.2528317339778449e-01 -2.1589438619750290e-01 -3.6557224050372467e-01 

5.5600000000000000e+08 -2.8150061934647796e-01 -4.1725824659994071e-01 7.0593858237289442e-01 -4.7990347128693189e-01 7.0593858237289442e-01 -4.7990347128693189e-01 -3.0096228271262460e-01 -4.0330844885331929e-01 

6.6700000000000000e+08 -3.5990366479901076e-01 -4.4280162994607225e-01 6.2378272823073933e-01 -5.1567040640951445e-01 6.2378272823073933e-01 -5.1567040640951445e-01 -3.8453247435925397e-01 -4.2140570903376195e-01 

7.7800000000000000e+08 -4.3363622927479684e-01 -4.5365782326539861e-01 5.4636008758252963e-01 -5.3615235678271400e-01 5.4636008758252963e-01 -5.3615235678271400e-01 -4.6285796053399031e-01 -4.2356182026848982e-01 

8.8900000000000000e+08 -5.0088182491185862e-01 -4.5326979814149837e-01 4.7556302086634289e-01 -5.4492724646911972e-01 4.7556302086634289e-01 -5.4492724646911972e-01 -5.3395855638982959e-01 -4.1348275385629407e-01 

1.0000000000000000e+09 -5.6098095442230911e-01 -4.4465197163810322e-01 4.1208136767224035e-01 -5.4512779073705142e-01 4.1208136767224035e-01 -5.4512779073705142e-01 -5.9710627342856359e-01 -3.9442125569818565e-01 
